/*--------------------------------*- C++ -*----------------------------------*\
  =========                 |
| \\      /  F ield         | OpenFOAM: The Open Source CFD Toolbox           |
|  \\    /   O peration     | Version:  7.0                                   |
|   \\  /    A nd           | Website:  https://openfoam.org                  |
|    \\/     M anipulation  |                                                 |
\*---------------------------------------------------------------------------*/
FoamFile
{
    version     2.0;
    format      ascii;
    class       volVectorField;
    object      U;
}
// * * * * * * * * * * * * * * * * * * * * * * * * * * * * * * * * * * * * * //

dimensions      [0 1 -1 0 0 0 0];

internalField   uniform (0 0 0);

boundaryField
{
    inlet
    {
        type fixedValue;
	value nonuniform List<vector>
	20
	(
	(0.0975 0 0)
	(0.2775 0 0)
	(0.4375 0 0)
	(0.5775 0 0)
	(0.6975 0 0)
	(0.7975 0 0)
	(0.8775 0 0)
	(0.9375 0 0)
	(0.9775 0 0)
	(0.9975 0 0)
	(0.9975 0 0)
	(0.9775 0 0)
	(0.9375 0 0)
	(0.8775 0 0)
	(0.7975 0 0)
	(0.6975 0 0)
	(0.5775 0 0)
	(0.4375 0 0)
	(0.2775 0 0)
	(0.0975 0 0)
	);
    }

    outlet
    {
        type zeroGradient;
    }

    walls
    {
        type            fixedValue;
        value           uniform (0 0 0);
    }

    frontAndBack
    {
        type             empty;
    }
    
}

// ************************************************************************* //
